# vtk DataFile Version 2.0
trial_cubev2, Created by Gmsh
ASCII
DATASET UNSTRUCTURED_GRID
POINTS 8 double
0 0 0
10 0 0
10 10 0
0 10 0
0 0 10
10 0 10
10 10 10
0 10 10

CELLS 7 39
4 0 1 2 3
4 4 5 6 7
4 0 1 5 4
4 1 2 6 5
4 2 3 7 6
4 3 0 4 7
8 0 1 2 3 4 5 6 7

CELL_TYPES 7
9
9
9
9
9
9
12

CELL_DATA 7
SCALARS CellEntityIds int 1
LOOKUP_TABLE default
101
102
103
104
105
106
5
