# vtk DataFile Version 2.0
pincell_v1.0, Created by Gmsh
ASCII
DATASET UNSTRUCTURED_GRID
POINTS 985 double
0.48 0 0
0.4 0 0
-0.63 -0.63 0
0.63 -0.63 0
-0.63 0.63 0
0.63 0.63 0
0.3394112549695427 0.3394112549695429 0
-6.100969390045537e-16 0.48 0
-0.3394112549695437 0.3394112549695419 0
-0.48 -2.072845160921228e-15 0
-0.3394112549695407 -0.3394112549695448 0
3.322430562109871e-15 -0.48 0
0.3394112549695442 -0.3394112549695414 0
0.4434621756054176 0.1836880475352432 0
0.1836880475352427 0.4434621756054178 0
-0.183688047535244 0.4434621756054173 0
-0.4434621756054183 0.1836880475352415 0
-0.4434621756054167 -0.1836880475352454 0
-0.1836880475352402 -0.4434621756054188 0
0.1836880475352456 -0.4434621756054166 0
0.443462175605418 -0.1836880475352422 0
0.475893533459429 0.0626525722656248 0
0.4636443966187527 0.1242331416492101 0
0.4156921938165304 0.2400000000000001 0
0.3808096033397927 0.292205485924186 0
0.2922054859241857 0.380809603339793 0
0.2399999999999997 0.4156921938165307 0
0.1242331416492096 0.4636443966187529 0
0.0626525722656243 0.475893533459429 0
-0.0626525722656255 0.4758935334594289 0
-0.1242331416492108 0.4636443966187525 0
-0.2400000000000009 0.4156921938165301 0
-0.2922054859241868 0.3808096033397922 0
-0.3808096033397937 0.2922054859241848 0
-0.4156921938165313 0.2399999999999987 0
-0.4636443966187532 0.1242331416492082 0
-0.4758935334594293 0.06265257226562285 0
-0.4758935334594287 -0.06265257226562695 0
-0.4636443966187521 -0.1242331416492122 0
-0.4156921938165292 -0.2400000000000023 0
-0.3808096033397911 -0.2922054859241881 0
-0.2922054859241837 -0.3808096033397946 0
-0.2399999999999976 -0.4156921938165319 0
-0.124233141649207 -0.4636443966187536 0
-0.06265257226562182 -0.4758935334594294 0
0.06265257226562798 -0.4758935334594285 0
0.124233141649213 -0.4636443966187519 0
0.2400000000000022 -0.4156921938165292 0
0.2922054859241879 -0.3808096033397913 0
0.3808096033397937 -0.2922054859241847 0
0.4156921938165311 -0.2399999999999991 0
0.4636443966187529 -0.1242331416492095 0
0.475893533459429 -0.0626525722656248 0
0.2828427124746193 0.2828427124746187 0
8.238535137130597e-16 0.4 0
-0.2828427124746181 0.28284271247462 0
-0.4 1.825342711366145e-15 0
-0.2828427124746201 -0.282842712474618 0
-7.840215437089415e-16 -0.4 0
0.2828427124746187 -0.2828427124746193 0
0.3695518130045148 0.1530733729460357 0
0.1530733729460365 0.3695518130045145 0
-0.153073372946035 0.3695518130045151 0
-0.3695518130045142 0.1530733729460373 0
-0.3695518130045153 -0.1530733729460344 0
-0.1530733729460371 -0.3695518130045142 0
0.1530733729460353 -0.369551813004515 0
0.3695518130045146 -0.1530733729460362 0
0.3965779445495242 0.05221047688802057 0
0.3863703305156274 0.1035276180410082 0
0.3464101615137756 0.1999999999999998 0
0.3173413361164943 0.243504571603488 0
0.2435045716034886 0.3173413361164938 0
0.2000000000000005 0.3464101615137752 0
0.103527618041009 0.3863703305156272 0
0.0522104768880214 0.3965779445495241 0
-0.05221047688801977 0.3965779445495243 0
-0.1035276180410074 0.3863703305156276 0
-0.199999999999999 0.346410161513776 0
-0.2435045716034873 0.3173413361164948 0
-0.3173413361164933 0.2435045716034893 0
-0.3464101615137748 0.2000000000000012 0
-0.386370330515627 0.1035276180410098 0
-0.396577944549524 0.05221047688802221 0
-0.3965779445495244 -0.05221047688801894 0
-0.3863703305156277 -0.1035276180410068 0
-0.3464101615137762 -0.1999999999999987 0
-0.317341336116495 -0.2435045716034871 0
-0.2435045716034895 -0.3173413361164932 0
-0.2000000000000014 -0.3464101615137747 0
-0.1035276180410093 -0.3863703305156271 0
-0.05221047688802136 -0.3965779445495241 0
0.0522104768880198 -0.3965779445495243 0
0.1035276180410074 -0.3863703305156276 0
0.1999999999999994 -0.3464101615137758 0
0.2435045716034877 -0.3173413361164945 0
0.3173413361164938 -0.2435045716034887 0
0.3464101615137752 -0.2000000000000005 0
0.3863703305156272 -0.1035276180410086 0
0.3965779445495241 -0.05221047688802103 0
-0.3149999999999998 -0.63 0
5.551115123125783e-16 -0.63 0
0.3150000000000001 -0.63 0
-0.4724999999999999 -0.63 0
-0.1574999999999996 -0.63 0
0.1575000000000003 -0.63 0
0.4725 -0.63 0
-0.5775 -0.63 0
-0.5249999999999999 -0.63 0
-0.4199999999999998 -0.63 0
-0.3674999999999998 -0.63 0
-0.2624999999999997 -0.63 0
-0.2099999999999997 -0.63 0
-0.1049999999999995 -0.63 0
-0.05249999999999944 -0.63 0
0.05250000000000044 -0.63 0
0.1050000000000003 -0.63 0
0.2100000000000002 -0.63 0
0.2625000000000001 -0.63 0
0.3675 -0.63 0
0.42 -0.63 0
0.525 -0.63 0
0.5775 -0.63 0
-0.63 0.3149999999999998 0
-0.63 -5.551115123125783e-16 0
-0.63 -0.3150000000000001 0
-0.63 0.4724999999999999 0
-0.63 0.1574999999999996 0
-0.63 -0.1575000000000003 0
-0.63 -0.4725 0
-0.63 0.5775 0
-0.63 0.5249999999999999 0
-0.63 0.4199999999999998 0
-0.63 0.3674999999999998 0
-0.63 0.2624999999999997 0
-0.63 0.2099999999999997 0
-0.63 0.1049999999999995 0
-0.63 0.05249999999999944 0
-0.63 -0.05250000000000044 0
-0.63 -0.1050000000000003 0
-0.63 -0.2100000000000002 0
-0.63 -0.2625000000000001 0
-0.63 -0.3675 0
-0.63 -0.42 0
-0.63 -0.525 0
-0.63 -0.5775 0
0.63 -0.3149999999999998 0
0.63 5.551115123125783e-16 0
0.63 0.3150000000000001 0
0.63 -0.4724999999999999 0
0.63 -0.1574999999999996 0
0.63 0.1575000000000003 0
0.63 0.4725 0
0.63 -0.5775 0
0.63 -0.5249999999999999 0
0.63 -0.4199999999999998 0
0.63 -0.3674999999999998 0
0.63 -0.2624999999999997 0
0.63 -0.2099999999999997 0
0.63 -0.1049999999999995 0
0.63 -0.05249999999999944 0
0.63 0.05250000000000044 0
0.63 0.1050000000000003 0
0.63 0.2100000000000002 0
0.63 0.2625000000000001 0
0.63 0.3675 0
0.63 0.42 0
0.63 0.525 0
0.63 0.5775 0
0.3149999999999998 0.63 0
-5.551115123125783e-16 0.63 0
-0.3150000000000001 0.63 0
0.4724999999999999 0.63 0
0.1574999999999996 0.63 0
-0.1575000000000003 0.63 0
-0.4725 0.63 0
0.5775 0.63 0
0.5249999999999999 0.63 0
0.4199999999999998 0.63 0
0.3674999999999998 0.63 0
0.2624999999999997 0.63 0
0.2099999999999997 0.63 0
0.1049999999999995 0.63 0
0.05249999999999944 0.63 0
-0.05250000000000044 0.63 0
-0.1050000000000003 0.63 0
-0.2100000000000002 0.63 0
-0.2625000000000001 0.63 0
-0.3675 0.63 0
-0.42 0.63 0
-0.525 0.63 0
-0.5775 0.63 0
-0.001756501409603494 0.00144889888048432 0
-0.1708465911608706 0.001579803043663171 0
0.1654427419086203 -0.0005858955131812571 0
-0.2268446518177444 0.1422112577591415 0
-0.08630154628523708 0.001514350962073746 0
-0.0008782507048013348 0.2007244494402421 0
-0.119687459615636 0.1855330819832944 0
0.2241427271916195 -0.1417143039939003 0
0.08184312024950839 0.0004315016836515317 0
-0.0008782507048021388 -0.1992755505597579 0
0.1174582465977719 -0.1845601556604317 0
0.2241427271916198 0.1411284084807187 0
0.1174582465977724 0.184991657344083 0
-0.2268446518177454 -0.1406314547154774 0
-0.1196874596156371 -0.1840187310212202 0
0.3109124984816697 -0.0001464738782955323 0
-0.3122634607947324 0.0003949507609168023 0
-0.2641766922556602 0.2359655609027938 0
-0.2455106720367023 0.1890884093309677 0
-0.1911255877503749 0.1566518658338591 0
-0.1554065236830055 0.1710924739085768 0
-0.1308160973924357 0.2468726589903679 0
-0.1419447351692353 0.3082122359974416 0
-0.2260449103191165 0.2637781793556163 0
-0.2085852490347457 0.2102150225947377 0
-0.17027101578867 0.2295317031103098 0
-0.1851355078943345 0.2879709323120429 0
-0.2081786315987865 0.09533410618731543 0
-0.1895126113798286 0.0484569546154893 0
-0.1426649095356594 0.001557985683133363 0
-0.1144832279104483 0.001536168322603554 0
-0.09743018406203673 0.06285392796914731 0
-0.1085588218388364 0.1241935049762209 0
-0.1749720283454698 0.1049539057836172 0
-0.1588184689405646 0.0532559457333753 0
-0.1281243265013007 0.05805493685126131 0
-0.1417654250921531 0.1145737053799191 0
-0.05811986466002589 0.001492533601543937 0
-0.02993818303481469 0.001470716241014129 0
-0.001463751174669441 0.0678740824004036 0
-0.001171000939735388 0.1342992659203228 0
-0.04048132034174623 0.1956606602879262 0
-0.08008438997869113 0.1905968711356103 0
-0.07276288153913603 0.1275620919575882 0
-0.06544137309958097 0.06452731277956608 0
-0.03345256213712521 0.06620069758998483 0
-0.03696694123943571 0.1309306789389555 0
-0.000585500469867282 0.2671496329601614 0
-0.0002927502349332291 0.3335748164800807 0
-0.09571320868690199 0.3211125107222886 0
-0.08789879933279657 0.2558546909289494 0
-0.04439103919050408 0.2626330883751256 0
-0.04830075803926193 0.329605516462325 0
0.263276050713619 -0.235799909647713 0
0.2437093889526193 -0.1887571068208067 0
0.188581233660337 -0.1559962545494108 0
0.1530197401290544 -0.1702782051049213 0
0.1293299553805264 -0.2462240414417928 0
0.1412016641632809 -0.3078879272231539 0
0.2251967922891041 -0.2635596422607999 0
0.2068890129747206 -0.2097779484051054 0
0.1686798267527028 -0.2289888572412061 0
0.1843399133763511 -0.2876995093774909 0
0.2045760654306198 -0.09467150116699395 0
0.18500940366962 -0.04762869834008761 0
0.137576201355583 -0.0002467631142369942 0
0.1097096608025457 9.236928470726876e-05 0
0.09371482903226289 -0.06123238409770954 0
0.1055865378150174 -0.1228962698790706 0
0.171579556225419 -0.1040797574043528 0
0.154577878790501 -0.05216326025929493 0
0.1241463539113819 -0.05669782217850224 0
0.1385830470202182 -0.1134880136417117 0
0.0539765796964711 0.0007706340825957945 0
0.0261100391434338 0.001109766481540057 0
-0.001463751174669709 -0.06545925093292973 0
-0.001171000939735924 -0.1323674007463438 0
0.03856724839605586 -0.1943704189266492 0
0.07801274749691385 -0.1894652872935404 0
0.07000069156343294 -0.126053313501495 0
0.06198863562995202 -0.0626413397094496 0
0.03026244222764116 -0.06405029532118967 0
0.03441484531184851 -0.1292103571239194 0
-0.0005855004698683538 -0.2661837003731719 0
-0.0002927502349345689 -0.333091850186586 0
0.09502266119297624 -0.3207353161082652 0
0.08651770434494506 -0.2551003017009028 0
0.04311499122671051 -0.2617729274676076 0
0.04766273405736516 -0.329175436008566 0
0.1850094036696201 0.04665220581811873 0
0.20457606543062 0.09389030714941873 0
[...]
CELL_DATA 152
SCALARS CellEntityIds int 1
LOOKUP_TABLE default
4
4
4
4
4
4
4
4
4
4
4
4
4
4
4
4
4
4
4
4
4
4
4
4
4
4
4
4
4
4
4
4
4
4
4
4
4
4
4
4
4
4
4
4
4
4
4
4
1
1
1
1
1
1
1
1
1
1
1
1
1
1
1
1
1
1
1
1
1
1
1
1
2
2
2
2
2
2
2
2
2
2
2
2
2
2
2
2
2
2
2
2
2
2
2
2
2
2
2
2
2
2
2
2
3
3
3
3
3
3
3
3
3
3
3
3
3
3
3
3
3
3
3
3
3
3
3
3
3
3
3
3
3
3
3
3
3
3
3
3
3
3
3
3
3
3
3
3
3
3
3
3
