# vtk DataFile Version 2.0
trial_cubev2, Created by Gmsh
ASCII
DATASET UNSTRUCTURED_GRID
POINTS 64 double
0 0 0
10 0 0
10 10 0
0 10 0
0 0 10
10 0 10
10 10 10
0 10 10
3.333333333326263 0 0
6.6666666666616 0 0
10 3.333333333326263 0
10 6.6666666666616 0
6.666666666666663 10 0
3.333333333333331 10 0
0 6.666666666666663 0
0 3.333333333333331 0
3.333333333326263 0 10
6.6666666666616 0 10
10 3.333333333326263 10
10 6.6666666666616 10
6.666666666666663 10 10
3.333333333333331 10 10
0 6.666666666666663 10
0 3.333333333333331 10
0 0 3.333333333326263
0 0 6.6666666666616
10 0 3.333333333326263
10 0 6.6666666666616
10 10 3.333333333326263
10 10 6.6666666666616
0 10 3.333333333326263
0 10 6.6666666666616
3.333333333330849 3.333333333332533 0
3.333333333332532 6.666666666665949 0
6.666666666664599 3.333333333330849 0
6.666666666665949 6.666666666664598 0
3.333333333330849 3.333333333332533 10
3.333333333332532 6.666666666665949 10
6.666666666664599 3.333333333330849 10
6.666666666665949 6.666666666664598 10
3.333333333330049 0 3.333333333330049
3.333333333330049 0 6.666666666663883
6.666666666663883 0 3.333333333330049
6.666666666663883 0 6.666666666663883
10 3.333333333330049 3.333333333330049
10 3.333333333330049 6.666666666663883
10 6.666666666663883 3.333333333330049
10 6.666666666663883 6.666666666663883
6.666666666666664 10 3.333333333330049
6.666666666666665 10 6.666666666663883
3.333333333333332 10 3.333333333330049
3.333333333333332 10 6.666666666663883
0 6.666666666666664 3.333333333330049
0 6.666666666666665 6.666666666663883
0 3.333333333333332 3.333333333330049
0 3.333333333333332 6.666666666663883
3.333333333333372 3.333333333333797 3.333333333333835
3.333333333333373 3.333333333333795 6.66666666666617
3.333333333333793 6.666666666666709 3.333333333333834
3.333333333333795 6.666666666666713 6.666666666666169
6.666666666666124 3.333333333333374 3.333333333333834
6.666666666666126 3.333333333333373 6.666666666666166
6.666666666666711 6.666666666666123 3.333333333333835
6.666666666666711 6.666666666666124 6.666666666666167

CELLS 81 513
4 0 8 32 15
4 15 32 33 14
4 14 33 13 3
4 8 9 34 32
4 32 34 35 33
4 33 35 12 13
4 9 1 10 34
4 34 10 11 35
4 35 11 2 12
4 4 16 36 23
4 23 36 37 22
4 22 37 21 7
4 16 17 38 36
4 36 38 39 37
4 37 39 20 21
4 17 5 18 38
4 38 18 19 39
4 39 19 6 20
4 0 8 40 24
4 24 40 41 25
4 25 41 16 4
4 8 9 42 40
4 40 42 43 41
4 41 43 17 16
4 9 1 26 42
4 42 26 27 43
4 43 27 5 17
4 1 10 44 26
4 26 44 45 27
4 27 45 18 5
4 10 11 46 44
4 44 46 47 45
4 45 47 19 18
4 11 2 28 46
4 46 28 29 47
4 47 29 6 19
4 2 12 48 28
4 28 48 49 29
4 29 49 20 6
4 12 13 50 48
4 48 50 51 49
4 49 51 21 20
4 13 3 30 50
4 50 30 31 51
4 51 31 7 21
4 3 14 52 30
4 30 52 53 31
4 31 53 22 7
4 14 15 54 52
4 52 54 55 53
4 53 55 23 22
4 15 0 24 54
4 54 24 25 55
4 55 25 4 23
8 0 8 32 15 24 40 56 54
8 24 40 56 54 25 41 57 55
8 25 41 57 55 4 16 36 23
8 15 32 33 14 54 56 58 52
8 54 56 58 52 55 57 59 53
8 55 57 59 53 23 36 37 22
8 14 33 13 3 52 58 50 30
8 52 58 50 30 53 59 51 31
8 53 59 51 31 22 37 21 7
8 8 9 34 32 40 42 60 56
8 40 42 60 56 41 43 61 57
8 41 43 61 57 16 17 38 36
8 32 34 35 33 56 60 62 58
8 56 60 62 58 57 61 63 59
8 57 61 63 59 36 38 39 37
8 33 35 12 13 58 62 48 50
8 58 62 48 50 59 63 49 51
8 59 63 49 51 37 39 20 21
8 9 1 10 34 42 26 44 60
8 42 26 44 60 43 27 45 61
8 43 27 45 61 17 5 18 38
8 34 10 11 35 60 44 46 62
8 60 44 46 62 61 45 47 63
8 61 45 47 63 38 18 19 39
8 35 11 2 12 62 46 28 48
8 62 46 28 48 63 47 29 49
8 63 47 29 49 39 19 6 20

CELL_TYPES 81
9
9
9
9
9
9
9
9
9
9
9
9
9
9
9
9
9
9
9
9
9
9
9
9
9
9
9
9
9
9
9
9
9
9
9
9
9
9
9
9
9
9
9
9
9
9
9
9
9
9
9
9
9
9
12
12
12
12
12
12
12
12
12
12
12
12
12
12
12
12
12
12
12
12
12
12
12
12
12
12
12

CELL_DATA 81
SCALARS CellEntityIds int 1
LOOKUP_TABLE default
101
101
101
101
101
101
101
101
101
102
102
102
102
102
102
102
102
102
103
103
103
103
103
103
103
103
103
104
104
104
104
104
104
104
104
104
105
105
105
105
105
105
105
105
105
106
106
106
106
106
106
106
106
106
5
5
5
5
5
5
5
5
5
5
5
5
5
5
5
5
5
5
5
5
5
5
5
5
5
5
5
